
 Working directory              : /tmp/asmola/molpro.s3NgwYmi5L/
 Global scratch directory       : /tmp/asmola/molpro.s3NgwYmi5L/
 Wavefunction directory         : /home/asmola/wfu/
 Main file repository           : /tmp/asmola/molpro.s3NgwYmi5L/

 id        : uclcc

 Nodes                        nprocs
 vincent.theory.phys.ucl.ac.uk    1
 GA implementation: MPI file
 GA implementation (serial work in mppx): MPI file

 Using customized tuning parameters: mindgm=1; mindgv=20; mindgc=4; mindgr=1; noblas=0; minvec=7
 default implementation of scratch files=df  


 Variables initialized (1015), CPU time= 0.01 sec
 ***,CS2 Ground State Energy with CCSD(T) and aug-cc-pVQZ-f12
 memory,500,m;
 
 geometry={angstrom
 C
 S , 1, r1
 S , 1, r2, 2, alpha
 }
 
 r1 = 1.55275
 r2 = 1.55275
 alpha = 180.00
 
 basis=aug-cc-pVQZ-f12
 
 hf
 {ccsd(t)-f12}
 
 
 Commands initialized (818), CPU time= 0.01 sec, 672 directives.
 Default parameters read. Elapsed time= 0.10 sec

 Checking input...
 Passed
1


                                         ***  PROGRAM SYSTEM MOLPRO  ***
                                       Copyright, TTI GmbH Stuttgart, 2015
                                    Version 2022.1 linked Mar  3 2022 23:20:00


 **********************************************************************************************************************************
 LABEL *   CS2 Ground State Energy with CCSD(T) and aug-cc-pVQZ-f12                      
  (2 PROC) 64 bit serial version                                                         DATE: 13-Aug-25          TIME: 13:30:13  
 **********************************************************************************************************************************

 SHA1:             31073afc4d8441e10870424e0d77336a33bc4286
 **********************************************************************************************************************************

 Memory per process:       500 MW
 Total memory per node:    500 MW

 GA preallocation disabled
 GA check disabled

 Variable memory set to 500.0 MW

 SETTING R1             =         1.55275000                                  
 SETTING R2             =         1.55275000                                  
 SETTING ALPHA          =       180.00000000                                  
 SETTING BASIS          =    AUG-CC-PVQZ-F12


 Recomputing integrals since basis changed


 Using spherical harmonics

 Library entry C      S cc-pVQZ-F12          selected for orbital group  1
 Library entry C      P cc-pVQZ-F12          selected for orbital group  1
 Library entry C      D cc-pVQZ-F12          selected for orbital group  1
 Library entry C      D vqz-f12-diff         selected for orbital group  1
 Library entry C      F cc-pVQZ-F12          selected for orbital group  1
 Library entry C      F vqz-f12-diff         selected for orbital group  1
 Library entry C      G cc-pVQZ-F12          selected for orbital group  1
 Library entry C      G vqz-f12-diff         selected for orbital group  1
 Library entry S      S cc-pVQZ-F12          selected for orbital group  2
 Library entry S      P cc-pVQZ-F12          selected for orbital group  2
 Library entry S      D cc-pVQZ-F12          selected for orbital group  2
 Library entry S      D vqz-f12-diff         selected for orbital group  2
 Library entry S      F cc-pVQZ-F12          selected for orbital group  2
 Library entry S      F vqz-f12-diff         selected for orbital group  2
 Library entry S      G cc-pVQZ-F12          selected for orbital group  2
 Library entry S      G vqz-f12-diff         selected for orbital group  2


 PROGRAM * SEWARD (Integral evaluation for generally contracted gaussian basis sets)     Author: Roland Lindh, 1990

 Geometry written to block  1 of record 700

 Orientation using atomic masses  
 Molecule type: Linear
 Symmetry elements: X,Y,Z
 Rotational constants:       3.2690427      3.2690427      0.0000000 GHz  (calculated with average atomic masses)

 Point group  D2h 



 ATOMIC COORDINATES

 NR  ATOM    CHARGE       X              Y              Z

   1  C       6.00    0.000000000    0.000000000    0.000000000
   2  S      16.00    0.000000000    0.000000000    2.934272240
   3  S      16.00    0.000000000    0.000000000   -2.934272240

 Bond lengths in Bohr (Angstrom)

 1-2  2.934272240  1-3  2.934272240
     ( 1.552750000)     ( 1.552750000)

 Bond angles

  2-1-3  180.00000000

 NUCLEAR CHARGE:                   38
 NUMBER OF PRIMITIVE AOS:         519
 NUMBER OF SYMMETRY AOS:          412
 NUMBER OF CONTRACTIONS:          342   (   71Ag  +   43B3u +   43B2u +   27B1g +   60B1u +   39B2g +   39B3g +   20Au  )
 NUMBER OF INNER CORE ORBITALS:     2   (    1Ag  +    0B3u +    0B2u +    0B1g +    1B1u +    0B2g +    0B3g +    0Au  )
 NUMBER OF OUTER CORE ORBITALS:     9   (    3Ag  +    1B3u +    1B2u +    0B1g +    2B1u +    1B2g +    1B3g +    0Au  )
 NUMBER OF VALENCE ORBITALS:       12   (    3Ag  +    2B3u +    2B2u +    0B1g +    3B1u +    1B2g +    1B3g +    0Au  )


 NUCLEAR REPULSION ENERGY  109.05600225

 EXTRA SYMMETRY OF AOS IN SYMMETRY 1:   1 1 1 1 1 1 1 1 2 1   2 1 2 1 2 1 2 1 3 2   1 3 2 1 3 2 1 1 1 1   1 1 1 1 1 1 1 1 1 1
                                        1 1 1 2 1 2 1 2 1 2   1 2 1 2 1 2 1 2 1 2   1 2 1 3 2 1 3 2 1 3   2
 EXTRA SYMMETRY OF AOS IN SYMMETRY 2:   1 1 1 1 1 1 1 1 2 1   2 1 2 1 2 1 1 1 1 1   1 1 1 1 1 1 1 1 1 1   2 1 2 1 2 1 2 1 2 1
                                        2 1 2
 EXTRA SYMMETRY OF AOS IN SYMMETRY 3:   1 1 1 1 1 1 1 1 2 1   2 1 2 1 2 1 1 1 1 1   1 1 1 1 1 1 1 1 1 1   2 1 2 1 2 1 2 1 2 1
                                        2 1 2
 EXTRA SYMMETRY OF AOS IN SYMMETRY 4:   1 1 1 1 1 1 2 1 2 1   2 1 1 1 1 1 1 1 1 1   1 1 2 1 2 1 2
 EXTRA SYMMETRY OF AOS IN SYMMETRY 5:   1 1 1 1 1 1 1 1 2 1   2 1 2 1 2 1 1 1 1 1   1 1 1 1 1 1 1 1 1 1   1 1 2 1 2 1 2 1 2 1
                                        2 1 2 1 2 1 2 1 2 1   2 1 3 2 1 3 2 1 3 2
 EXTRA SYMMETRY OF AOS IN SYMMETRY 6:   1 1 1 1 1 1 2 1 2 1   2 1 1 1 1 1 1 1 1 1   1 1 1 1 1 1 2 1 2 1   2 1 2 1 2 1 2 1 2
 EXTRA SYMMETRY OF AOS IN SYMMETRY 7:   1 1 1 1 1 1 2 1 2 1   2 1 1 1 1 1 1 1 1 1   1 1 1 1 1 1 2 1 2 1   2 1 2 1 2 1 2 1 2
 EXTRA SYMMETRY OF AOS IN SYMMETRY 8:   1 1 1 1 1 1 1 1 1 1   1 1 1 1 1 2 1 2 1 2

 Eigenvalues of metric

         1 0.182E-05 0.793E-05 0.190E-04 0.354E-04 0.156E-03 0.173E-03 0.241E-03 0.995E-03
         2 0.188E-05 0.359E-04 0.142E-03 0.388E-03 0.143E-02 0.643E-02 0.666E-02 0.112E-01
         3 0.188E-05 0.359E-04 0.142E-03 0.388E-03 0.143E-02 0.643E-02 0.666E-02 0.112E-01
         4 0.152E-02 0.484E-02 0.372E-01 0.462E-01 0.752E-01 0.150E+00 0.166E+00 0.180E+00
         5 0.176E-05 0.253E-05 0.567E-05 0.209E-04 0.873E-04 0.218E-03 0.426E-03 0.615E-03
         6 0.188E-05 0.659E-04 0.142E-03 0.248E-02 0.438E-02 0.111E-01 0.223E-01 0.303E-01
         7 0.188E-05 0.659E-04 0.142E-03 0.248E-02 0.438E-02 0.111E-01 0.223E-01 0.303E-01
         8 0.263E-02 0.982E-02 0.393E-01 0.730E-01 0.146E+00 0.195E+00 0.197E+00 0.211E+00


 Contracted 2-electron integrals neglected if value below      1.0D-12
 AO integral compression algorithm  1   Integral accuracy      1.0D-12

     1226.047 MB (compressed) written to integral file ( 46.6%)


 NUMBER OF SORTED TWO-ELECTRON INTEGRALS:  219161912.     BUFFER LENGTH:  32768
 NUMBER OF SEGMENTS:   7  SEGMENT LENGTH:   31999799      RECORD LENGTH: 524288

 Memory used in sort:      32.56 MW

 SORT1 READ   329038230. AND WROTE   167832647. INTEGRALS IN    484 RECORDS. CPU TIME:     7.51 SEC, REAL TIME:     8.93 SEC
 SORT2 READ   167832647. AND WROTE   219161912. INTEGRALS IN   4677 RECORDS. CPU TIME:     2.87 SEC, REAL TIME:     3.41 SEC

 FILE SIZES:   FILE 1:  1258.7 MBYTE,  FILE 4:  2030.1 MBYTE,   TOTAL:   3288.7 MBYTE

 OPERATOR DM      FOR CENTER  0  COORDINATES:    0.000000    0.000000    0.000000


 **********************************************************************************************************************************
 DATASETS  * FILE   NREC   LENGTH (MB)   RECORD NAMES
              1      19      848.46       500      610      700      900      950      970     1000      129      960     1100   
                                          VAR    BASINP    GEOM    SYMINP    ZMAT    AOBASIS   BASIS     P2S    ABASIS      S 
                                         1400     1410     1200     1210     1080     1600     1650     1300     1700   
                                           T        V       H0       H01     AOSYM     SMH    MOLCAS    ERIS     OPER   

 PROGRAMS   *        TOTAL       INT
 CPU TIMES  *       101.86    101.74
 REAL TIME  *        69.58 SEC
 DISK USED  *         3.06 GB
 **********************************************************************************************************************************


 Program * Restricted Hartree-Fock

 Orbital guess generated from atomic densities. Full valence occupancy:    7   3   3   0   6   2   2   0


 Initial occupancy:   6   2   2   0   5   2   2   0

 NELEC=   38   SYM=1   MS2= 0   THRE=1.0D-08   THRD=3.2D-06   THRG=3.2D-06  HFMA2=F  DIIS_START=2   DIIS_MAX=10   DIIS_INCORE=F

 Level shifts:    0.00 (CLOSED)    0.00 (OPEN)    0.30 (GAP_MIN)

 ITER           ETOT              DE          GRAD        DDIFF     DIIS  NEXP   TIME(IT)  TIME(TOT)  DIAG
   1     -832.95319822    -832.95319822     0.00D+00     0.95D-01     0     0       0.38      0.74    start
   2     -832.96780228      -0.01460406     0.48D-02     0.65D-02     1     0       0.37      1.11    diag
   3     -832.98106168      -0.01325940     0.36D-02     0.32D-02     2     0       0.38      1.49    diag
   4     -832.98225699      -0.00119531     0.86D-03     0.11D-02     3     0       0.39      1.88    diag
   5     -832.98238555      -0.00012856     0.26D-03     0.44D-03     4     0       0.38      2.26    diag
   6     -832.98239567      -0.00001012     0.61D-04     0.14D-03     5     0       0.37      2.63    diag
   7     -832.98239593      -0.00000027     0.11D-04     0.25D-04     6     0       0.39      3.02    diag
   8     -832.98239594      -0.00000001     0.22D-05     0.36D-05     7     0       0.39      3.41    fixocc
   9     -832.98239594      -0.00000000     0.28D-06     0.46D-06     8     0       0.38      3.79    diag
  10     -832.98239594      -0.00000000     0.45D-07     0.68D-07     0     0       0.38      4.17    diag/orth

 Final occupancy:   6   2   2   0   5   2   2   0

 !RHF STATE 1.1 Energy               -832.982395942240
  RHF One-electron energy           -1366.824202380476
  RHF Two-electron energy             424.785804191280
  RHF Kinetic energy                  832.889332229453
  RHF Nuclear energy                  109.056002246955
  RHF Virial quotient                  -1.000111735988

 !RHF STATE 1.1 Dipole moment           0.00000000     0.00000000     0.00000000
 Dipole moment /Debye                   0.00000000     0.00000000     0.00000000

 Orbital energies:

           1.1          2.1          3.1          4.1          5.1          6.1          7.1          8.1
    -91.989696   -11.399015    -8.993279    -6.674499    -1.142482    -0.679134     0.040321     0.069161

           1.2          2.2          3.2          4.2
     -6.672835    -0.525744     0.038266     0.074877

           1.3          2.3          3.3          4.3
     -6.672835    -0.525744     0.038266     0.074877

           1.4          2.4
      0.170393     0.301344

           1.5          2.5          3.5          4.5          5.5          6.5          7.5
    -91.989696    -8.993301    -6.674511    -1.019784    -0.583203     0.041190     0.103511

           1.6          2.6          3.6          4.6
     -6.672835    -0.372430     0.085147     0.225606

           1.7          2.7          3.7          4.7
     -6.672835    -0.372430     0.085147     0.225606

           1.8          2.8
      0.196702     0.408968


 HOMO      2.7    -0.372430 =     -10.1343eV
 LUMO      3.2     0.038266 =       1.0413eV
 LUMO-HOMO         0.410696 =      11.1756eV

 Orbitals saved in record  2100.2


 **********************************************************************************************************************************
 DATASETS  * FILE   NREC   LENGTH (MB)   RECORD NAMES
              1      19      848.46       500      610      700      900      950      970     1000      129      960     1100   
                                          VAR    BASINP    GEOM    SYMINP    ZMAT    AOBASIS   BASIS     P2S    ABASIS      S 
                                         1400     1410     1200     1210     1080     1600     1650     1300     1700   
                                           T        V       H0       H01     AOSYM     SMH    MOLCAS    ERIS     OPER   

              2       4        0.69       700     1000      520     2100   
                                         GEOM     BASIS   MCVARS     RHF  

 PROGRAMS   *        TOTAL    HF-SCF       INT
 CPU TIMES  *       106.04      4.18    101.74
 REAL TIME  *        74.11 SEC
 DISK USED  *         3.06 GB
 **********************************************************************************************************************************


 PROGRAM * CCSD (Closed-shell coupled cluster)     Authors: C. Hampel, H.-J. Werner, 1991, M. Deegan, P.J. Knowles, 1992

                                  CCSD-F12 implementation by  H.-J. Werner, 2007

                   Density fitting integral evaluation by F.R. Manby, 2003,2007, G. Knizia, 2010


 Basis set VQZ-F12/JKFIT generated.      Number of basis functions:   510 
 Basis set CC-PVQZ-F12/OPTRI generated.  Number of basis functions:   258 
 Basis set AUG-CC-PVQZ-F12/MP2FIT generated. Number of basis functions:   556 

 Convergence thresholds:  THRVAR = 1.00D-08  THRDEN = 1.00D-06

 CCSD(T)     terms to be evaluated (factor= 1.000)


 Number of core orbitals:          11 (   4   1   1   0   3   1   1   0 )
 Number of closed-shell orbitals:   8 (   2   1   1   0   2   1   1   0 )
 Number of external orbitals:     323 (  65  41  41  27  55  37  37  20 )

 Molecular orbitals read from record     2100.2  Type=RHF/CANONICAL  

 MP2-F12 correlation treatment (H.-J. Werner, 2006)
 ==================================================

 Using MP2-F12 with ansatz 3C(FIX)

 Using projected zeroth-order Hamiltonian (+Z)

 FOCKRIB=T FOCKRIC=T FOCKRIP=T CABSP=T CABSA=T CABSK=T CABSF=T GBC=F EBC=F DMAT=T NOFIK=T NOPAO=1 SOLVE=-1  USEPAO=0
 EXCH_A= T EXCH_B= F EXCH_C= F EXCH_P= F

 Geminal basis:    OPTFULL  GEM_TYPE=SLATER  BETA=1.0  NGEM=6

 Optimizing Gaussian exponents for each gem_beta

 Geminal optimization for beta= 1.0000
 Weight function:   m=0, omega= 1.4646

 Augmented Hessian optimization of geminal fit. Trust ratio= 0.40000
 Convergence reached after   2 iterations. Final gradient= 8.66D-16, Step= 4.23D-06, Delta= 1.28D-09

 Alpha:                 0.19532     0.81920     2.85917     9.50073    35.69989   197.79328
 Coeff:                 0.27070     0.30552     0.18297     0.10986     0.06810     0.04224


 Symmetry turned off. Reference energy:       -832.982395942239

 All pairs explicitly correlated. Number of r12-pairs:           36

 Excluding core orbitals from MO domains

 AO(A)-basis ORBITAL           loaded. Number of functions:     342
 RI(R)-basis CC-PVQZ-F12/OPTRI loaded. Number of functions:     258
 DF-basis VQZ-F12/JKFIT        loaded. Number of functions:     510

 Screening thresholds:   THRAO=  1.00D-10  THRMO=  1.00D-09  THRPROD=  1.00D-09
                         THRSW=  1.00D-05  THROV=  1.00D-12  THRAOF12= 1.00D-08

 CPU time for Fock operators                     10.39 sec

 Construction of ABS:
 Smallest eigenvalue of S          2.34E-04  (threshold= 1.00E-08)
 Ratio eigmin/eigmax               5.09E-05  (threshold= 1.00E-09)
 Smallest eigenvalue of S kept     2.34E-04  (threshold= 2.34E-04, 0 functions deleted, 258 kept)

 Construction of CABS:
 Smallest eigenvalue of S          5.09E-08  (threshold= 1.00E-08)
 Ratio eigmin/eigmax               5.09E-08  (threshold= 1.00E-09)
 Smallest eigenvalue of S kept     5.09E-08  (threshold= 5.09E-08, 0 functions deleted, 258 kept)

 CPU time for CABS singles                        0.07 sec

 CABS-singles contribution of  -0.00018451 patched into reference energy.
 New reference energy        -832.98258046

 AO(A)-basis ORBITAL           loaded. Number of functions:     342
 RI(R)-basis CC-PVQZ-F12/OPTRI loaded. Number of functions:     258
 DF-basis AUG-CC-PVQZ-F12/MP2FIloaded. Number of functions:     556

 Screening thresholds:   THRAO=  1.00D-10  THRMO=  1.00D-09  THRPROD=  1.00D-09
                         THRSW=  1.00D-05  THROV=  1.00D-12  THRAOF12= 1.00D-08

 CPU time for 3-index integral evaluation         9.30 sec
 CPU time for first  half transformation          1.11 sec ( 9390.4 MFLOP/sec)
 CPU time for second half transformation          0.11 sec ( 3633.8 MFLOP/sec)
 CPU time for sorting                             0.03 sec
 CPU time for fitting                             0.09 sec (36107.1 MFLOP/sec)
 CPU time for tilde quantities                    0.12 sec (40393.8 MFLOP/sec)
 CPU time for assembly                            0.72 sec (58068.7 MFLOP/sec)
 CPU time for tranop_f12                          1.11 sec (48293.9 MFLOP/sec)
 CPU time for f12 integrals (total)              16.67 sec, Elapsed time:     13.56 sec
 CPU time for f12 matrices (total)                0.70 sec, Elapsed time:      0.38 sec

 Diagonal F12 approximation with fixed coefficients:  TSING= 0.500,  TTRIP= 0.250 (scaled by -1/beta)

 DF-MP2-F12 energy corrections:
 ==============================
 Approx.                                    Singlet             Triplet             Total
 DF-MP2-F12/3*C(DX,FIX)                -0.025830762903     -0.001852446010     -0.027683208913
 DF-MP2-F12/3*C(FIX)                   -0.026028697963     -0.001842082454     -0.027870780417
 DF-MP2-F12/3C(FIX)                    -0.026089188522     -0.001869449224     -0.027958637746

 DF-MP2-F12 correlation energies:
 ================================
 Approx.                                    Singlet             Triplet             Ecorr            Total Energy
 DF-MP2                                -0.335442104185     -0.204252901064     -0.539695005249   -833.522275460737
 DF-MP2-F12/3*C(DX,FIX)                -0.361272867088     -0.206105347074     -0.567378214163   -833.549958669650
 DF-MP2-F12/3*C(FIX)                   -0.361470802149     -0.206094983518     -0.567565785667   -833.550146241154
 DF-MP2-F12/3C(FIX)                    -0.361531292707     -0.206122350289     -0.567653642996   -833.550234098483

 SCS-DF-MP2 energies (F_SING= 1.20000  F_TRIP= 0.62222  F_PARALLEL= 0.33333):
 ============================================================================
 SCS-DF-MP2                            -0.529621219018   -833.512201674505
 SCS-DF-MP2-F12/3*C(DX,FIX)            -0.561770767574   -833.544351223062
 SCS-DF-MP2-F12/3*C(FIX)               -0.562001841212   -833.544582296699
 SCS-DF-MP2-F12/3C(FIX)                -0.562091458094   -833.544671913582

 Symmetry restored.
 Symmetry transformation completed.

 Number of N-1 electron functions:               8
 Number of N-2 electron functions:              36
 Number of singly external CSFs:               396
 Number of doubly external CSFs:            429266
 Total number of CSFs:                      429663

 Length of J-op  integral file:             280.50 MB
 Length of K-op  integral file:             375.76 MB
 Length of 3-ext integral record:             0.00 MB

 Memory could be reduced to 46.07 Mwords without degradation in triples

 Integral transformation finished. Total CPU:   2.80 sec, npass=  1  Memory used:  13.29 MW

 Reference energy:                   -832.98258046

 Adding F12 terms to K(Cij), methodcc=6,  factor= 1.0

 ITER.      SQ.NORM     CORR.ENERGY   TOTAL ENERGY   ENERGY CHANGE        DEN1      VAR(S)    VAR(P)  DIIS     TIME  TIME/IT
   1      1.22137104    -0.53831929  -833.52089974     0.00139244     0.02171562  0.66D-02  0.64D-02  1  1    35.72     2.60
   2      1.23761725    -0.53743801  -833.52001846     0.00088128    -0.01520457  0.16D-03  0.66D-03  2  2    40.63     2.62
   3      1.24422362    -0.53764180  -833.52022226    -0.00020379    -0.00227327  0.15D-03  0.59D-04  3  3    45.52     2.62
   4      1.24861562    -0.53740921  -833.51998966     0.00023259    -0.00157568  0.19D-04  0.73D-05  4  4    50.45     2.62
   5      1.25030670    -0.53737919  -833.51995964     0.00003002    -0.00027061  0.23D-05  0.89D-06  5  5    55.34     2.62
   6      1.25077344    -0.53734145  -833.51992190     0.00003774    -0.00000336  0.11D-06  0.12D-06  6  6    60.28     2.62
   7      1.25087263    -0.53733381  -833.51991427     0.00000763    -0.00001103  0.41D-08  0.97D-08  6  1    65.20     2.63
   8      1.25087887    -0.53733400  -833.51991445    -0.00000018    -0.00000041  0.44D-09  0.12D-08  6  2    70.13     2.63
   9      1.25087933    -0.53733389  -833.51991434     0.00000011     0.00000091  0.35D-10  0.17D-09  6  3    75.02     2.63

 Norm of t1 vector:      0.11074017      S-energy:     0.00000012      T1 diagnostic:  0.01957628
                                                                       D1 diagnostic:  0.04871390
                                                                       D2 diagnostic:  0.18335072 (internal)

 Adding energy correction from Wij-K(Fij), methodcc=6  factor= 1.0

  CCSD correlation energy              -0.537333888927
  MP2-F12 correction (uncoupled)       -0.026840907553
  C*T doubles correction               -0.000958949880
  f12b correction                       0.006826957913


 Total CPU time for triples:     27.84 sec


 RESULTS
 =======

  Reference energy                   -832.982395942239
  F12 singles correction               -0.000184513248

 F12 singles corrections added to reference energy

  New reference energy               -832.982580455487

  F12a singlet correction              -0.025953362722
  F12a triplet correction              -0.001846494711
  F12a total correction                -0.027799857433

 F12a corrections for ansatz F12/3C(FIX) added to CCSD energy

  CCSD-F12a singlet pair energy        -0.383849180532
  CCSD-F12a triplet pair energy        -0.181284685688
  CCSD-F12a correlation energy         -0.565133746361

  Triples (T) contribution             -0.038849632186
  Total correlation energy             -0.603983378547

  CCSD-F12a total energy             -833.547714201848
  CCSD[T]-F12a energy                -833.588335409878
  CCSD-T-F12a energy                 -833.586022430876
 !CCSD(T)-F12a total energy          -833.586563834034

 F12b corrections for ansatz F12/3C(FIX) added to CCSD(T)-F12a energy

  CCSD-F12b singlet pair energy        -0.377349964641
  CCSD-F12b triplet pair energy        -0.180956943665
  CCSD-F12b correlation energy         -0.558306788448

  Triples (T) contribution             -0.038849632186
  Total correlation energy             -0.597156420634

  CCSD-F12b total energy             -833.540887243935
  CCSD[T]-F12b energy                -833.581508451965
  CCSD-T-F12b energy                 -833.579195472963
 !CCSD(T)-F12b total energy          -833.579736876121

 Timing summary (sec):

 STEP                 CPU(USER)    SYS     CPU(TOT)    WALL
 Transformation          2.83      0.33      3.16      2.22
 CCSD iterations        44.22      2.43     46.65     23.73
 Triples                27.84      0.83     28.67     16.93
 MP2-F12                27.99      1.02     29.01     23.87
 F12b energy             4.48      0.21      4.69      2.39

 Program statistics:

 Available memory in ccsd:               499999558
 Min. memory needed in ccsd:               1299122
 Max. memory used in ccsd:                 1661388
 Max. memory used in cckext:               1569762 (10 integral passes)



 **********************************************************************************************************************************
 DATASETS  * FILE   NREC   LENGTH (MB)   RECORD NAMES
              1      20      985.54       500      610      700      900      950      970     1000      129      960     1100   
                                          VAR    BASINP    GEOM    SYMINP    ZMAT    AOBASIS   BASIS     P2S    ABASIS      S 
                                         1400     1410     1200     1210     1080     1600     1650     1300     1700     1380   
                                           T        V       H0       H01     AOSYM     SMH    MOLCAS    ERIS     OPER     JKOP   

              2       6        0.88       700     1000      520     2100     7360     7350   
                                         GEOM     BASIS   MCVARS     RHF    F12ABS    EF12   

 PROGRAMS   *        TOTAL   CCSD(T)    HF-SCF       INT
 CPU TIMES  *       213.44    107.39      4.18    101.74
 REAL TIME  *       143.36 SEC
 DISK USED  *         3.06 GB
 **********************************************************************************************************************************

 CCSD(T)-F12/aug-cc-pVQZ-F12 energy=   -833.579736876121

     CCSD(T)-F12          HF-SCF
   -833.57973688   -832.98239594
 **********************************************************************************************************************************
 Molpro calculation terminated
