
 Working directory              : /tmp/asmola/molpro.jSlABe03H9/
 Global scratch directory       : /tmp/asmola/molpro.jSlABe03H9/
 Wavefunction directory         : /home/asmola/wfu/
 Main file repository           : /tmp/asmola/molpro.jSlABe03H9/

 id        : uclcc

 Nodes                        nprocs
 vincent.theory.phys.ucl.ac.uk    1
 GA implementation: MPI file
 GA implementation (serial work in mppx): MPI file

 Using customized tuning parameters: mindgm=1; mindgv=20; mindgc=4; mindgr=1; noblas=0; minvec=7
 default implementation of scratch files=df  


 Variables initialized (1015), CPU time= 0.00 sec
 ***,CS2 Ground State Energy with CCSD(T) and aug-cc-pVQZ-f12
 memory,500,m;
 
 geometry={angstrom
 C
 S , 1, r1
 S , 1, r2, 2, alpha
 }
 
 r1 = 1.55275
 r2 = 1.55275
 alpha = 280.00
 
 basis=aug-cc-pVQZ-f12
 
 hf
 {ccsd(t)-f12}
 
 
 Commands initialized (818), CPU time= 0.01 sec, 672 directives.
 Default parameters read. Elapsed time= 0.05 sec

 Checking input...
 Passed
1


                                         ***  PROGRAM SYSTEM MOLPRO  ***
                                       Copyright, TTI GmbH Stuttgart, 2015
                                    Version 2022.1 linked Mar  3 2022 23:20:00


 **********************************************************************************************************************************
 LABEL *   CS2 Ground State Energy with CCSD(T) and aug-cc-pVQZ-f12                      
  (2 PROC) 64 bit serial version                                                         DATE: 13-Aug-25          TIME: 13:47:00  
 **********************************************************************************************************************************

 SHA1:             31073afc4d8441e10870424e0d77336a33bc4286
 **********************************************************************************************************************************

 Memory per process:       500 MW
 Total memory per node:    500 MW

 GA preallocation disabled
 GA check disabled

 Variable memory set to 500.0 MW

 SETTING R1             =         1.55275000                                  
 SETTING R2             =         1.55275000                                  
 SETTING ALPHA          =       280.00000000                                  
 SETTING BASIS          =    AUG-CC-PVQZ-F12


 Recomputing integrals since basis changed


 Using spherical harmonics

 Library entry C      S cc-pVQZ-F12          selected for orbital group  1
 Library entry C      P cc-pVQZ-F12          selected for orbital group  1
 Library entry C      D cc-pVQZ-F12          selected for orbital group  1
 Library entry C      D vqz-f12-diff         selected for orbital group  1
 Library entry C      F cc-pVQZ-F12          selected for orbital group  1
 Library entry C      F vqz-f12-diff         selected for orbital group  1
 Library entry C      G cc-pVQZ-F12          selected for orbital group  1
 Library entry C      G vqz-f12-diff         selected for orbital group  1
 Library entry S      S cc-pVQZ-F12          selected for orbital group  2
 Library entry S      P cc-pVQZ-F12          selected for orbital group  2
 Library entry S      D cc-pVQZ-F12          selected for orbital group  2
 Library entry S      D vqz-f12-diff         selected for orbital group  2
 Library entry S      F cc-pVQZ-F12          selected for orbital group  2
 Library entry S      F vqz-f12-diff         selected for orbital group  2
 Library entry S      G cc-pVQZ-F12          selected for orbital group  2
 Library entry S      G vqz-f12-diff         selected for orbital group  2


 PROGRAM * SEWARD (Integral evaluation for generally contracted gaussian basis sets)     Author: Roland Lindh, 1990

 Geometry written to block  1 of record 700

 Orientation using atomic masses  
 Molecule type: Asymmetric top,     Order of principal axis = 2
 Symmetry elements: X,Y
 Rotational constants:       6.4636539     35.3097818      7.9119877 GHz  (calculated with average atomic masses)

 Point group  C2v 



 ATOMIC COORDINATES

 NR  ATOM    CHARGE       X              Y              Z

   1  C       6.00    0.000000000    0.000000000   -1.893155776
   2  S      16.00    0.000000000    1.886113839    0.354627168
   3  S      16.00    0.000000000   -1.886113839    0.354627168

 Bond lengths in Bohr (Angstrom)

 1-2  2.934272240  1-3  2.934272240  2-3  3.772227679
     ( 1.552750000)     ( 1.552750000)     ( 1.996176922)

 Bond angles

  1-2-3   50.00000000   1-3-2   50.00000000   2-1-3   80.00000000

 NUCLEAR CHARGE:                   38
 NUMBER OF PRIMITIVE AOS:         519
 NUMBER OF SYMMETRY AOS:          412
 NUMBER OF CONTRACTIONS:          342   (  114A1  +   70B1  +   99B2  +   59A2  )
 NUMBER OF INNER CORE ORBITALS:     2   (    1A1  +    0B1  +    1B2  +    0A2  )
 NUMBER OF OUTER CORE ORBITALS:     9   (    4A1  +    1B1  +    3B2  +    1A2  )
 NUMBER OF VALENCE ORBITALS:       12   (    5A1  +    2B1  +    4B2  +    1A2  )


 NUCLEAR REPULSION ENERGY  133.29800981

 Eigenvalues of metric

         1 0.182E-05 0.187E-05 0.940E-05 0.209E-04 0.522E-04 0.660E-04 0.141E-03 0.172E-03
         2 0.190E-05 0.433E-04 0.198E-03 0.392E-03 0.197E-02 0.326E-02 0.647E-02 0.771E-02
         3 0.179E-05 0.183E-05 0.593E-05 0.192E-04 0.233E-04 0.394E-04 0.929E-04 0.146E-03
         4 0.189E-05 0.829E-04 0.370E-03 0.780E-03 0.285E-02 0.541E-02 0.706E-02 0.910E-02


 Contracted 2-electron integrals neglected if value below      1.0D-12
 AO integral compression algorithm  1   Integral accuracy      1.0D-12

     2710.045 MB (compressed) written to integral file ( 52.0%)


 NUMBER OF SORTED TWO-ELECTRON INTEGRALS:  435629170.     BUFFER LENGTH:  32768
 NUMBER OF SEGMENTS:  14  SEGMENT LENGTH:   31999890      RECORD LENGTH: 524288

 Memory used in sort:      32.56 MW

 SORT1 READ   651450830. AND WROTE   384788409. INTEGRALS IN   1108 RECORDS. CPU TIME:     8.25 SEC, REAL TIME:    11.95 SEC
 SORT2 READ   384788409. AND WROTE   435629170. INTEGRALS IN  10338 RECORDS. CPU TIME:     4.91 SEC, REAL TIME:     6.08 SEC

 FILE SIZES:   FILE 1:  2742.6 MBYTE,  FILE 4:  4647.3 MBYTE,   TOTAL:   7389.9 MBYTE

 OPERATOR DM      FOR CENTER  0  COORDINATES:    0.000000    0.000000    0.000000


 **********************************************************************************************************************************
 DATASETS  * FILE   NREC   LENGTH (MB)   RECORD NAMES
              1      19     1870.71       500      610      700      900      950      970     1000      129      960     1100   
                                          VAR    BASINP    GEOM    SYMINP    ZMAT    AOBASIS   BASIS     P2S    ABASIS      S 
                                         1400     1410     1200     1210     1080     1600     1650     1300     1700   
                                           T        V       H0       H01     AOSYM     SMH    MOLCAS    ERIS     OPER   

 PROGRAMS   *        TOTAL       INT
 CPU TIMES  *       119.17    119.06
 REAL TIME  *        84.19 SEC
 DISK USED  *         6.88 GB
 **********************************************************************************************************************************


 Program * Restricted Hartree-Fock

 Orbital guess generated from atomic densities. Full valence occupancy:   10   3   8   2

 Initial occupancy:   9   2   6   2

 NELEC=   38   SYM=1   MS2= 0   THRE=1.0D-08   THRD=3.2D-06   THRG=3.2D-06  HFMA2=F  DIIS_START=2   DIIS_MAX=10   DIIS_INCORE=F

 Level shifts:    0.00 (CLOSED)    0.00 (OPEN)    0.30 (GAP_MIN)

 ITER           ETOT              DE          GRAD        DDIFF     DIIS  NEXP   TIME(IT)  TIME(TOT)  DIAG
   1     -832.80005141    -832.80005141     0.00D+00     0.68D-01     0     0       2.47      4.91    start
   2     -832.83045517      -0.03040377     0.39D-02     0.37D-02     1     0       2.48      7.39    diag
   3     -832.83669216      -0.00623698     0.20D-02     0.15D-02     2     0       2.47      9.86    diag
   4     -832.83780763      -0.00111548     0.48D-03     0.63D-03     3     0       2.46     12.32    diag
   5     -832.83804652      -0.00023888     0.22D-03     0.28D-03     4     0       2.52     14.84    diag
   6     -832.83811959      -0.00007307     0.10D-03     0.18D-03     5     0       2.51     17.35    diag
   7     -832.83812907      -0.00000948     0.34D-04     0.88D-04     6     0       2.52     19.87    diag
   8     -832.83812947      -0.00000040     0.78D-05     0.16D-04     7     0       2.47     22.34    fixocc
   9     -832.83812950      -0.00000003     0.23D-05     0.45D-05     8     0       2.52     24.86    diag
  10     -832.83812951      -0.00000000     0.65D-06     0.13D-05     9     0       2.53     27.39    diag/orth
  11     -832.83812951      -0.00000000     0.16D-06     0.18D-06     0     0       2.49     29.88    diag

 Final occupancy:   9   2   6   2

 !RHF STATE 1.1 Energy               -832.838129507629
  RHF One-electron energy           -1414.550994558124
  RHF Two-electron energy             448.414855239230
  RHF Kinetic energy                  833.640534207897
  RHF Nuclear energy                  133.298009811266
  RHF Virial quotient                  -0.999037469188

 !RHF STATE 1.1 Dipole moment           0.00000000     0.00000000     0.68857204
 Dipole moment /Debye                   0.00000000     0.00000000     1.75017555

 Orbital energies:

           1.1          2.1          3.1          4.1          5.1          6.1          7.1          8.1          9.1         10.1
    -92.011771   -11.300829    -9.018187    -6.699158    -6.697675    -1.275025    -0.744913    -0.566163    -0.371758     0.037573

          11.1
      0.058673

           1.2          2.2          3.2          4.2
     -6.696569    -0.571474     0.044044     0.065639

           1.3          2.3          3.3          4.3          5.3          6.3          7.3          8.3
    -92.011770    -9.017960    -6.698689    -6.697461    -0.907754    -0.524961     0.027520     0.056675

           1.4          2.4          3.4          4.4
     -6.696540    -0.351979     0.084852     0.214413


 HOMO      2.4    -0.351979 =      -9.5778eV
 LUMO      7.3     0.027520 =       0.7488eV
 LUMO-HOMO         0.379499 =      10.3267eV

 Orbitals saved in record  2100.2


 **********************************************************************************************************************************
 DATASETS  * FILE   NREC   LENGTH (MB)   RECORD NAMES
              1      19     1870.71       500      610      700      900      950      970     1000      129      960     1100   
                                          VAR    BASINP    GEOM    SYMINP    ZMAT    AOBASIS   BASIS     P2S    ABASIS      S 
                                         1400     1410     1200     1210     1080     1600     1650     1300     1700   
                                           T        V       H0       H01     AOSYM     SMH    MOLCAS    ERIS     OPER   

              2       4        0.91       700     1000      520     2100   
                                         GEOM     BASIS   MCVARS     RHF  

 PROGRAMS   *        TOTAL    HF-SCF       INT
 CPU TIMES  *       149.05     29.88    119.06
 REAL TIME  *       102.42 SEC
 DISK USED  *         6.88 GB
 **********************************************************************************************************************************


 PROGRAM * CCSD (Closed-shell coupled cluster)     Authors: C. Hampel, H.-J. Werner, 1991, M. Deegan, P.J. Knowles, 1992

                                  CCSD-F12 implementation by  H.-J. Werner, 2007

                   Density fitting integral evaluation by F.R. Manby, 2003,2007, G. Knizia, 2010


 Basis set VQZ-F12/JKFIT generated.      Number of basis functions:   510 
 Basis set CC-PVQZ-F12/OPTRI generated.  Number of basis functions:   258 
 Basis set AUG-CC-PVQZ-F12/MP2FIT generated. Number of basis functions:   556 

 Convergence thresholds:  THRVAR = 1.00D-08  THRDEN = 1.00D-06

 CCSD(T)     terms to be evaluated (factor= 1.000)


 Number of core orbitals:          11 (   5   1   4   1 )
 Number of closed-shell orbitals:   8 (   4   1   2   1 )
 Number of external orbitals:     323 ( 105  68  93  57 )

 Molecular orbitals read from record     2100.2  Type=RHF/CANONICAL  

 MP2-F12 correlation treatment (H.-J. Werner, 2006)
 ==================================================

 Using MP2-F12 with ansatz 3C(FIX)

 Using projected zeroth-order Hamiltonian (+Z)

 FOCKRIB=T FOCKRIC=T FOCKRIP=T CABSP=T CABSA=T CABSK=T CABSF=T GBC=F EBC=F DMAT=T NOFIK=T NOPAO=1 SOLVE=-1  USEPAO=0
 EXCH_A= T EXCH_B= F EXCH_C= F EXCH_P= F

 Geminal basis:    OPTFULL  GEM_TYPE=SLATER  BETA=1.0  NGEM=6

 Optimizing Gaussian exponents for each gem_beta

 Geminal optimization for beta= 1.0000
 Weight function:   m=0, omega= 1.4646

 Augmented Hessian optimization of geminal fit. Trust ratio= 0.40000
 Convergence reached after   2 iterations. Final gradient= 8.66D-16, Step= 4.23D-06, Delta= 1.28D-09

 Alpha:                 0.19532     0.81920     2.85917     9.50073    35.69989   197.79328
 Coeff:                 0.27070     0.30552     0.18297     0.10986     0.06810     0.04224


 Symmetry turned off. Reference energy:       -832.838129507628

 All pairs explicitly correlated. Number of r12-pairs:           36

 Excluding core orbitals from MO domains

 AO(A)-basis ORBITAL           loaded. Number of functions:     342
 RI(R)-basis CC-PVQZ-F12/OPTRI loaded. Number of functions:     258
 DF-basis VQZ-F12/JKFIT        loaded. Number of functions:     510

 Screening thresholds:   THRAO=  1.00D-10  THRMO=  1.00D-09  THRPROD=  1.00D-09
                         THRSW=  1.00D-05  THROV=  1.00D-12  THRAOF12= 1.00D-08

 CPU time for Fock operators                     10.42 sec

 Construction of ABS:
 Smallest eigenvalue of S          4.78E-04  (threshold= 1.00E-08)
 Ratio eigmin/eigmax               9.35E-05  (threshold= 1.00E-09)
 Smallest eigenvalue of S kept     4.78E-04  (threshold= 4.78E-04, 0 functions deleted, 258 kept)

 Construction of CABS:
 Smallest eigenvalue of S          1.48E-07  (threshold= 1.00E-08)
 Ratio eigmin/eigmax               1.48E-07  (threshold= 1.00E-09)
 Smallest eigenvalue of S kept     1.48E-07  (threshold= 1.48E-07, 0 functions deleted, 258 kept)

 CPU time for CABS singles                        0.08 sec

 CABS-singles contribution of  -0.00021570 patched into reference energy.
 New reference energy        -832.83834521

 AO(A)-basis ORBITAL           loaded. Number of functions:     342
 RI(R)-basis CC-PVQZ-F12/OPTRI loaded. Number of functions:     258
 DF-basis AUG-CC-PVQZ-F12/MP2FIloaded. Number of functions:     556

 Screening thresholds:   THRAO=  1.00D-10  THRMO=  1.00D-09  THRPROD=  1.00D-09
                         THRSW=  1.00D-05  THROV=  1.00D-12  THRAOF12= 1.00D-08

 CPU time for 3-index integral evaluation         9.55 sec
 CPU time for first  half transformation          1.00 sec (10423.4 MFLOP/sec)
 CPU time for second half transformation          0.09 sec ( 4496.0 MFLOP/sec)
 CPU time for sorting                             0.03 sec
 CPU time for fitting                             0.10 sec (32496.4 MFLOP/sec)
 CPU time for tilde quantities                    0.11 sec (44065.9 MFLOP/sec)
 CPU time for assembly                            0.71 sec (58886.6 MFLOP/sec)
 CPU time for tranop_f12                          1.15 sec (46614.1 MFLOP/sec)
 CPU time for f12 integrals (total)              16.70 sec, Elapsed time:     13.59 sec
 CPU time for f12 matrices (total)                0.68 sec, Elapsed time:      0.38 sec

 Diagonal F12 approximation with fixed coefficients:  TSING= 0.500,  TTRIP= 0.250 (scaled by -1/beta)

 DF-MP2-F12 energy corrections:
 ==============================
 Approx.                                    Singlet             Triplet             Total
 DF-MP2-F12/3*C(DX,FIX)                -0.026949241096     -0.002142168735     -0.029091409831
 DF-MP2-F12/3*C(FIX)                   -0.026984088577     -0.002140989446     -0.029125078023
 DF-MP2-F12/3C(FIX)                    -0.027082912072     -0.002191528119     -0.029274440191

 DF-MP2-F12 correlation energies:
 ================================
 Approx.                                    Singlet             Triplet             Ecorr            Total Energy
 DF-MP2                                -0.330711668667     -0.197757901926     -0.528469570594   -833.366814782316
 DF-MP2-F12/3*C(DX,FIX)                -0.357660909764     -0.199900070661     -0.557560980425   -833.395906192147
 DF-MP2-F12/3*C(FIX)                   -0.357695757245     -0.199898891372     -0.557594648617   -833.395939860339
 DF-MP2-F12/3C(FIX)                    -0.357794580740     -0.199949430045     -0.557744010785   -833.396089222507

 SCS-DF-MP2 energies (F_SING= 1.20000  F_TRIP= 0.62222  F_PARALLEL= 0.33333):
 ============================================================================
 SCS-DF-MP2                            -0.519903363599   -833.358248575322
 SCS-DF-MP2-F12/3*C(DX,FIX)            -0.553575357906   -833.391920569628
 SCS-DF-MP2-F12/3*C(FIX)               -0.553616441103   -833.391961652825
 SCS-DF-MP2-F12/3C(FIX)                -0.553766475582   -833.392111687305

 Symmetry restored.
 Symmetry transformation completed.

 Number of N-1 electron functions:               8
 Number of N-2 electron functions:              36
 Number of singly external CSFs:               731
 Number of doubly external CSFs:            846847
 Total number of CSFs:                      847579

 Length of J-op  integral file:             282.62 MB
 Length of K-op  integral file:             388.50 MB
 Length of 3-ext integral record:             0.00 MB

 Memory could be reduced to 91.40 Mwords without degradation in triples

 Integral transformation finished. Total CPU:  10.72 sec, npass=  1  Memory used:  13.74 MW

 Reference energy:                   -832.83834521

 Adding F12 terms to K(Cij), methodcc=6,  factor= 1.0

 ITER.      SQ.NORM     CORR.ENERGY   TOTAL ENERGY   ENERGY CHANGE        DEN1      VAR(S)    VAR(P)  DIIS     TIME  TIME/IT
   1      1.21258532    -0.53543917  -833.37378438    -0.00694327     0.01043253  0.49D-02  0.46D-02  1  1    47.67     4.71
   2      1.23046668    -0.53686064  -833.37520586    -0.00142148    -0.01384572  0.20D-03  0.72D-03  2  2    56.64     4.75
   3      1.23943612    -0.53724282  -833.37558804    -0.00038218    -0.00308460  0.17D-03  0.76D-04  3  3    65.65     4.76
   4      1.24550597    -0.53726240  -833.37560761    -0.00001957    -0.00184824  0.28D-04  0.14D-04  4  4    74.80     4.78
   5      1.24840654    -0.53727901  -833.37562422    -0.00001661    -0.00036164  0.28D-05  0.17D-05  5  5    83.84     4.79
   6      1.24911378    -0.53726283  -833.37560805     0.00001617    -0.00002029  0.50D-06  0.28D-06  6  6    92.93     4.80
   7      1.24935978    -0.53725942  -833.37560463     0.00000341    -0.00003326  0.61D-07  0.54D-07  6  2   102.34     4.83
   8      1.24939285    -0.53725790  -833.37560311     0.00000152     0.00000030  0.11D-07  0.71D-08  6  1   111.78     4.85
   9      1.24940960    -0.53725822  -833.37560343    -0.00000032    -0.00000045  0.14D-08  0.99D-09  6  4   121.11     4.87
  10      1.24941430    -0.53725824  -833.37560345    -0.00000003    -0.00000080  0.19D-09  0.17D-09  6  3   130.48     4.88

 Norm of t1 vector:      0.11837237      S-energy:    -0.00000029      T1 diagnostic:  0.02092548
                                                                       D1 diagnostic:  0.06298339
                                                                       D2 diagnostic:  0.19160412 (internal)

 Adding energy correction from Wij-K(Fij), methodcc=6  factor= 1.0

  CCSD correlation energy              -0.537258240543
  MP2-F12 correction (uncoupled)       -0.027938423358
  C*T doubles correction               -0.001119745087
  f12b correction                       0.006917902327


 Total CPU time for triples:     59.71 sec


 RESULTS
 =======

  Reference energy                   -832.838129507628
  F12 singles correction               -0.000215704094

 F12 singles corrections added to reference energy

  New reference energy               -832.838345211722

  F12a singlet correction              -0.026910877006
  F12a triplet correction              -0.002147291439
  F12a total correction                -0.029058168445

 F12a corrections for ansatz F12/3C(FIX) added to CCSD energy

  CCSD-F12a singlet pair energy        -0.385683295005
  CCSD-F12a triplet pair energy        -0.180632822991
  CCSD-F12a correlation energy         -0.566316408987

  Triples (T) contribution             -0.035359482412
  Total correlation energy             -0.601675891399

  CCSD-F12a total energy             -833.404661620710
  CCSD[T]-F12a energy                -833.441224483766
  CCSD-T-F12a energy                 -833.439675943389
 !CCSD(T)-F12a total energy          -833.440021103121

 F12b corrections for ansatz F12/3C(FIX) added to CCSD(T)-F12a energy

  CCSD-F12b singlet pair energy        -0.379118880226
  CCSD-F12b triplet pair energy        -0.180279335443
  CCSD-F12b correlation energy         -0.559398506660

  Triples (T) contribution             -0.035359482412
  Total correlation energy             -0.594757989072

  CCSD-F12b total energy             -833.397743718383
  CCSD[T]-F12b energy                -833.434306581439
  CCSD-T-F12b energy                 -833.432758041062
 !CCSD(T)-F12b total energy          -833.433103200794

 Timing summary (sec):

 STEP                 CPU(USER)    SYS     CPU(TOT)    WALL
 Transformation         10.77      0.73     11.50      6.29
 CCSD iterations        91.65      4.47     96.12     48.86
 Triples                59.71      1.61     61.32     37.39
 MP2-F12                28.08      1.01     29.09     24.02
 F12b energy             8.44      0.37      8.81      4.47

 Program statistics:

 Available memory in ccsd:               499999555
 Min. memory needed in ccsd:               2537364
 Max. memory used in ccsd:                 3252508
 Max. memory used in cckext:               3943465 (11 integral passes)



 **********************************************************************************************************************************
 DATASETS  * FILE   NREC   LENGTH (MB)   RECORD NAMES
              1      20     2143.04       500      610      700      900      950      970     1000      129      960     1100   
                                          VAR    BASINP    GEOM    SYMINP    ZMAT    AOBASIS   BASIS     P2S    ABASIS      S 
                                         1400     1410     1200     1210     1080     1600     1650     1300     1700     1380   
                                           T        V       H0       H01     AOSYM     SMH    MOLCAS    ERIS     OPER     JKOP   

              2       6        1.27       700     1000      520     2100     7360     7350   
                                         GEOM     BASIS   MCVARS     RHF    F12ABS    EF12   

 PROGRAMS   *        TOTAL   CCSD(T)    HF-SCF       INT
 CPU TIMES  *       347.74    198.68     29.88    119.06
 REAL TIME  *       223.58 SEC
 DISK USED  *         6.88 GB
 **********************************************************************************************************************************

 CCSD(T)-F12/aug-cc-pVQZ-F12 energy=   -833.433103200794

     CCSD(T)-F12          HF-SCF
   -833.43310320   -832.83812951
 **********************************************************************************************************************************
 Molpro calculation terminated
